<?xml version="1.0" encoding="UTF-8"?>

<!-- generated on 2024-11-07 02:28:33 by Eclipse SUMO GUI Version 1.21.0
<sumoConfiguration xmlns:xsi="http://www.w3.org/2001/XMLSchema-instance" xsi:noNamespaceSchemaLocation="http://sumo.dlr.de/xsd/sumoConfiguration.xsd">

    <input>
        <net-file value="environments/cross/cross.net.xml"/>
        <route-files value="environments/cross/cross.rou.xml"/>
        <additional-files value="environments/cross/cross.tls.add.xml,environments/input_additional.add.xml"/>
    </input>

    <time>
        <begin value="0"/>
        <end value="180"/>
        <step-length value=".2"/>
    </time>

    <report>
        <xml-validation value="never"/>
    </report>

    <traci_server>
        <remote-port value="64456"/>
    </traci_server>

    <gui_only>
        <gui-settings-file value="environments/cross/cross.settings.xml"/>
    </gui_only>

</sumoConfiguration>
-->

<meandata xmlns:xsi="http://www.w3.org/2001/XMLSchema-instance" xsi:noNamespaceSchemaLocation="http://sumo.dlr.de/xsd/meandata_file.xsd">
    <interval begin="0.00" end="180.00" id="dump">
        <edge id="1fi" sampledSeconds="100.34" traveltime="3.01" overlapTraveltime="4.28" density="13.70" laneDensity="13.70" occupancy="7.00" waitingTime="16.20" timeLoss="25.82" speed="10.89" speedRelative="0.78" departed="27" arrived="0" entered="0" left="27" laneChangedFrom="0" laneChangedTo="0"/>
        <edge id="1si" sampledSeconds="2547.81" traveltime="156.51" overlapTraveltime="164.04" density="104.27" laneDensity="34.76" occupancy="22.62" waitingTime="2279.40" timeLoss="2396.18" speed="0.87" speedRelative="0.06" departed="0" arrived="0" entered="25" left="0" laneChangedFrom="0" laneChangedTo="0"/>
        <edge id="2fi" sampledSeconds="81.36" traveltime="3.40" overlapTraveltime="3.81" density="9.22" laneDensity="9.22" occupancy="5.09" waitingTime="0.00" timeLoss="1.61" speed="14.42" speedRelative="1.04" departed="24" arrived="0" entered="0" left="24" laneChangedFrom="0" laneChangedTo="0"/>
        <edge id="2si" sampledSeconds="2227.41" traveltime="127.32" overlapTraveltime="133.28" density="97.39" laneDensity="32.46" occupancy="19.24" waitingTime="1963.40" timeLoss="2076.29" speed="1.00" speedRelative="0.07" departed="0" arrived="0" entered="24" left="0" laneChangedFrom="0" laneChangedTo="0"/>
        <edge id="3fi" sampledSeconds="58.97" traveltime="3.41" overlapTraveltime="3.98" density="7.10" laneDensity="7.10" occupancy="4.22" waitingTime="0.00" timeLoss="5.11" speed="13.27" speedRelative="0.96" departed="17" arrived="0" entered="0" left="17" laneChangedFrom="0" laneChangedTo="0"/>
        <edge id="3si" sampledSeconds="1575.84" traveltime="166.13" overlapTraveltime="175.09" density="68.11" laneDensity="34.06" occupancy="23.23" waitingTime="1418.15" timeLoss="1491.39" speed="0.77" speedRelative="0.06" departed="0" arrived="0" entered="17" left="0" laneChangedFrom="0" laneChangedTo="0"/>
        <edge id="4fi" sampledSeconds="54.23" traveltime="3.20" overlapTraveltime="3.60" density="6.53" laneDensity="6.53" occupancy="3.55" waitingTime="0.00" timeLoss="1.11" speed="14.43" speedRelative="1.04" departed="17" arrived="0" entered="0" left="17" laneChangedFrom="0" laneChangedTo="0"/>
        <edge id="4si" sampledSeconds="1378.21" traveltime="121.25" overlapTraveltime="126.72" density="60.36" laneDensity="30.18" occupancy="17.21" waitingTime="1198.20" timeLoss="1280.74" speed="1.05" speedRelative="0.08" departed="0" arrived="0" entered="17" left="0" laneChangedFrom="0" laneChangedTo="0"/>
    </interval>
    <interval begin="0.00" end="180.00" id="hbefa">
        <edge id="1fi" sampledSeconds="68.63" CO_abs="1638.647137" CO2_abs="192142.035848" HC_abs="11.519202" PMx_abs="2.851071" NOx_abs="72.543119" fuel_abs="61284.369334" electricity_abs="0"
            CO_normed="805.232008" CO2_normed="94418.690834" HC_normed="5.660542" PMx_normed="1.401018" NOx_normed="35.647724" fuel_normed="30115.169206" electricity_normed="0"
            traveltime="3.01" CO_perVeh="71.910010" CO2_perVeh="8431.916393" HC_perVeh="0.505506" PMx_perVeh="0.125116" NOx_perVeh="3.183465" fuel_perVeh="2689.389004" electricity_perVeh="0"/>
        <edge id="1si" sampledSeconds="2547.81" CO_abs="382184.912695" CO2_abs="6304400.932981" HC_abs="1887.146090" PMx_abs="155.204395" NOx_abs="2866.776869" fuel_abs="2010945.005168" electricity_abs="0"
            CO_normed="56307.169458" CO2_normed="928825.183496" HC_normed="278.032573" PMx_normed="22.866209" NOx_normed="422.361233" fuel_normed="296271.823966" electricity_normed="0"
            traveltime="156.51" CO_perVeh="23477.466173" CO2_perVeh="387276.825241" HC_perVeh="115.926629" PMx_perVeh="9.534144" NOx_perVeh="176.104955" fuel_perVeh="123531.546552" electricity_perVeh="0"/>
        <edge id="2fi" sampledSeconds="71.57" CO_abs="2173.858615" CO2_abs="238202.723451" HC_abs="14.930006" PMx_abs="3.675191" NOx_abs="90.870805" fuel_abs="75975.495262" electricity_abs="0"
            CO_normed="887.289230" CO2_normed="97225.601409" HC_normed="6.093880" PMx_normed="1.500078" NOx_normed="37.090124" fuel_normed="31010.406229" electricity_normed="0"
            traveltime="3.40" CO_perVeh="103.306248" CO2_perVeh="11319.885025" HC_perVeh="0.709505" PMx_perVeh="0.174653" NOx_perVeh="4.318368" fuel_perVeh="3610.512334" electricity_perVeh="0"/>
        <edge id="2si" sampledSeconds="2227.41" CO_abs="330082.330956" CO2_abs="5469405.410702" HC_abs="1630.413203" PMx_abs="134.423743" NOx_abs="2485.121378" fuel_abs="1744601.818512" electricity_abs="0"
            CO_normed="51956.922864" CO2_normed="860916.954305" HC_normed="256.636739" PMx_normed="21.159097" NOx_normed="391.172891" fuel_normed="274610.706519" electricity_normed="0"
            traveltime="127.32" CO_perVeh="18868.372454" CO2_perVeh="312645.569641" HC_perVeh="93.198698" PMx_perVeh="7.684014" NOx_perVeh="142.056061" fuel_perVeh="99726.019263" electricity_perVeh="0"/>
        <edge id="3fi" sampledSeconds="49.33" CO_abs="1128.710930" CO2_abs="128554.576932" HC_abs="7.873762" PMx_abs="1.922760" NOx_abs="48.631857" fuel_abs="41002.932142" electricity_abs="0"
            CO_normed="489.360906" CO2_normed="55735.780157" HC_normed="3.413727" PMx_normed="0.833627" NOx_normed="21.084698" fuel_normed="17777.122108" electricity_normed="0"
            traveltime="3.41" CO_perVeh="78.002480" CO2_perVeh="8884.095570" HC_perVeh="0.544137" PMx_perVeh="0.132877" NOx_perVeh="3.360830" fuel_perVeh="2833.613369" electricity_perVeh="0"/>
        <edge id="3si" sampledSeconds="1575.84" CO_abs="237689.340383" CO2_abs="3901229.423312" HC_abs="1173.378671" PMx_abs="96.368622" NOx_abs="1776.659437" fuel_abs="1244394.237973" electricity_abs="0"
            CO_normed="36985.815044" CO2_normed="607053.516426" HC_normed="182.584404" PMx_normed="14.995506" NOx_normed="276.458327" fuel_normed="193634.830463" electricity_normed="0"
            traveltime="166.13" CO_perVeh="25058.672349" CO2_perVeh="411291.603237" HC_perVeh="123.704797" PMx_perVeh="10.159773" NOx_perVeh="187.306367" fuel_perVeh="131191.695145" electricity_perVeh="0"/>
        <edge id="4fi" sampledSeconds="47.38" CO_abs="1399.579176" CO2_abs="159677.287915" HC_abs="9.670754" PMx_abs="2.398817" NOx_abs="60.324314" fuel_abs="50929.605069" electricity_abs="0"
            CO_normed="606.797822" CO2_normed="69229.259881" HC_normed="4.192826" PMx_normed="1.040025" NOx_normed="26.154049" fuel_normed="22080.903997" electricity_normed="0"
            traveltime="3.20" CO_perVeh="94.595812" CO2_perVeh="10792.388817" HC_perVeh="0.653634" PMx_perVeh="0.162133" NOx_perVeh="4.077245" fuel_perVeh="3442.268512" electricity_perVeh="0"/>
        <edge id="4si" sampledSeconds="1378.21" CO_abs="201824.917611" CO2_abs="3341189.687095" HC_abs="996.760362" PMx_abs="82.108651" NOx_abs="1517.930275" fuel_abs="1065755.020260" electricity_abs="0"
            CO_normed="31821.035492" CO2_normed="526793.801670" HC_normed="157.155753" PMx_normed="12.945787" NOx_normed="239.326807" fuel_normed="168033.901499" electricity_normed="0"
            traveltime="121.25" CO_perVeh="17756.044058" CO2_perVeh="293949.389363" HC_perVeh="87.692447" PMx_perVeh="7.223711" NOx_perVeh="133.543653" fuel_perVeh="93762.421998" electricity_perVeh="0"/>
    </interval>
