<?xml version="1.0" encoding="UTF-8"?>

<!-- generated on 2024-11-07 19:32:17 by Eclipse SUMO GUI Version 1.21.0
<sumoConfiguration xmlns:xsi="http://www.w3.org/2001/XMLSchema-instance" xsi:noNamespaceSchemaLocation="http://sumo.dlr.de/xsd/sumoConfiguration.xsd">

    <input>
        <net-file value="environments/cross/cross.net.xml"/>
        <route-files value="environments/cross/cross.rou.xml"/>
        <additional-files value="environments/cross/cross.tls.add.xml,environments/input_additional.add.xml"/>
    </input>

    <time>
        <begin value="0"/>
        <end value="180"/>
        <step-length value="0.8"/>
    </time>

    <report>
        <xml-validation value="never"/>
    </report>

    <gui_only>
        <gui-settings-file value="environments/cross/cross.settings.xml"/>
        <start value="true"/>
    </gui_only>

</sumoConfiguration>
-->

<meandata xmlns:xsi="http://www.w3.org/2001/XMLSchema-instance" xsi:noNamespaceSchemaLocation="http://sumo.dlr.de/xsd/meandata_file.xsd">
    <interval begin="0.00" end="180.00" id="dump">
        <edge id="1fi" sampledSeconds="83.82" traveltime="2.90" overlapTraveltime="3.36" density="11.44" laneDensity="11.44" occupancy="6.61" waitingTime="0.00" timeLoss="3.61" speed="14.05" speedRelative="1.01" departed="29" arrived="0" entered="0" left="29" laneChangedFrom="0" laneChangedTo="0"/>
        <edge id="1fo" sampledSeconds="59.26" traveltime="2.85" overlapTraveltime="3.23" density="8.09" laneDensity="8.09" occupancy="3.91" waitingTime="0.00" timeLoss="2.14" speed="14.28" speedRelative="1.03" departed="0" arrived="19" entered="19" left="0" laneChangedFrom="0" laneChangedTo="0"/>
        <edge id="1o" sampledSeconds="197.96" traveltime="9.78" overlapTraveltime="10.17" density="8.11" laneDensity="8.11" occupancy="4.19" waitingTime="0.00" timeLoss="12.25" speed="13.87" speedRelative="1.00" departed="0" arrived="0" entered="20" left="19" laneChangedFrom="0" laneChangedTo="0"/>
        <edge id="1si" sampledSeconds="461.68" traveltime="14.90" overlapTraveltime="16.33" density="18.89" laneDensity="6.30" occupancy="3.85" waitingTime="72.00" timeLoss="185.46" speed="8.71" speedRelative="0.63" departed="0" arrived="0" entered="29" left="26" laneChangedFrom="0" laneChangedTo="0"/>
        <edge id="2fi" sampledSeconds="82.92" traveltime="3.46" overlapTraveltime="3.88" density="9.40" laneDensity="9.40" occupancy="5.19" waitingTime="0.00" timeLoss="3.17" speed="14.15" speedRelative="1.02" departed="24" arrived="0" entered="0" left="24" laneChangedFrom="0" laneChangedTo="0"/>
        <edge id="2fo" sampledSeconds="85.20" traveltime="3.48" overlapTraveltime="3.97" density="9.66" laneDensity="9.66" occupancy="5.75" waitingTime="0.00" timeLoss="3.01" speed="14.06" speedRelative="1.01" departed="0" arrived="22" entered="23" left="0" laneChangedFrom="0" laneChangedTo="0"/>
        <edge id="2o" sampledSeconds="228.87" traveltime="9.24" overlapTraveltime="9.72" density="10.01" laneDensity="10.01" occupancy="6.37" waitingTime="0.00" timeLoss="13.92" speed="13.78" speedRelative="0.99" departed="0" arrived="0" entered="24" left="23" laneChangedFrom="0" laneChangedTo="0"/>
        <edge id="2si" sampledSeconds="341.04" traveltime="13.03" overlapTraveltime="14.34" density="14.91" laneDensity="4.97" occupancy="2.85" waitingTime="51.20" timeLoss="123.76" speed="9.29" speedRelative="0.67" departed="0" arrived="0" entered="24" left="23" laneChangedFrom="0" laneChangedTo="0"/>
        <edge id="3fi" sampledSeconds="72.13" traveltime="3.29" overlapTraveltime="3.77" density="8.69" laneDensity="8.69" occupancy="5.37" waitingTime="0.00" timeLoss="2.52" speed="14.04" speedRelative="1.01" departed="22" arrived="0" entered="0" left="22" laneChangedFrom="0" laneChangedTo="0"/>
        <edge id="3fo" sampledSeconds="50.73" traveltime="3.32" overlapTraveltime="3.82" density="6.11" laneDensity="6.11" occupancy="3.71" waitingTime="0.00" timeLoss="1.64" speed="13.88" speedRelative="1.00" departed="0" arrived="14" entered="14" left="0" laneChangedFrom="0" laneChangedTo="0"/>
        <edge id="3o" sampledSeconds="150.82" traveltime="9.61" overlapTraveltime="10.11" density="6.52" laneDensity="6.52" occupancy="4.17" waitingTime="0.00" timeLoss="10.49" speed="13.39" speedRelative="0.96" departed="0" arrived="0" entered="15" left="14" laneChangedFrom="0" laneChangedTo="0"/>
        <edge id="3si" sampledSeconds="429.68" traveltime="19.39" overlapTraveltime="20.97" density="18.57" laneDensity="9.29" occupancy="6.27" waitingTime="108.80" timeLoss="236.91" speed="6.47" speedRelative="0.47" departed="0" arrived="0" entered="22" left="16" laneChangedFrom="0" laneChangedTo="0"/>
        <edge id="4fi" sampledSeconds="55.45" traveltime="3.27" overlapTraveltime="3.68" density="6.68" laneDensity="6.68" occupancy="3.63" waitingTime="0.00" timeLoss="2.32" speed="14.11" speedRelative="1.02" departed="17" arrived="0" entered="0" left="17" laneChangedFrom="0" laneChangedTo="0"/>
        <edge id="4fo" sampledSeconds="60.81" traveltime="3.29" overlapTraveltime="3.76" density="7.32" laneDensity="7.32" occupancy="4.26" waitingTime="0.00" timeLoss="2.35" speed="14.03" speedRelative="1.01" departed="0" arrived="17" entered="17" left="0" laneChangedFrom="0" laneChangedTo="0"/>
        <edge id="4o" sampledSeconds="171.54" traveltime="9.27" overlapTraveltime="9.74" density="7.51" laneDensity="7.51" occupancy="4.61" waitingTime="0.00" timeLoss="10.67" speed="13.69" speedRelative="0.99" departed="0" arrived="0" entered="18" left="17" laneChangedFrom="0" laneChangedTo="0"/>
        <edge id="4si" sampledSeconds="312.42" traveltime="17.25" overlapTraveltime="18.50" density="13.68" laneDensity="6.84" occupancy="3.65" waitingTime="68.00" timeLoss="159.07" speed="7.16" speedRelative="0.52" departed="0" arrived="0" entered="17" left="15" laneChangedFrom="0" laneChangedTo="0"/>
    </interval>
    <interval begin="0.00" end="180.00" id="hbefa">
        <edge id="1fi" sampledSeconds="70.64" CO_abs="1715.274087" CO2_abs="199630.356223" HC_abs="11.868727" PMx_abs="2.922323" NOx_abs="74.747052" fuel_abs="63672.853167" electricity_abs="0"
            CO_normed="842.886529" CO2_normed="98098.455147" HC_normed="5.832298" PMx_normed="1.436031" NOx_normed="36.730738" fuel_normed="31288.871335" electricity_normed="0"
            traveltime="2.90" CO_perVeh="70.435005" CO2_perVeh="8197.503403" HC_perVeh="0.487370" PMx_perVeh="0.120001" NOx_perVeh="3.069369" fuel_perVeh="2614.624551" electricity_perVeh="0"/>
        <edge id="1fo" sampledSeconds="54.16" CO_abs="711.678415" CO2_abs="134554.210957" HC_abs="5.859687" PMx_abs="1.570527" NOx_abs="46.982661" fuel_abs="42916.781788" electricity_abs="0"
            CO_normed="349.719123" CO2_normed="66120.005384" HC_normed="2.879453" PMx_normed="0.771758" NOx_normed="23.087303" fuel_normed="21089.327660" electricity_normed="0"
            traveltime="2.85" CO_perVeh="37.456759" CO2_perVeh="7081.800577" HC_perVeh="0.308405" PMx_perVeh="0.082659" NOx_perVeh="2.472772" fuel_perVeh="2258.777989" electricity_perVeh="0"/>
        <edge id="1o" sampledSeconds="190.69" CO_abs="7216.560391" CO2_abs="693120.588435" HC_abs="47.473330" PMx_abs="11.071890" NOx_abs="269.060176" fuel_abs="221072.935711" electricity_abs="0"
            CO_normed="1063.840258" CO2_normed="102177.428825" HC_normed="6.998353" PMx_normed="1.632180" NOx_normed="39.663916" fuel_normed="32589.804041" electricity_normed="0"
            traveltime="9.78" CO_perVeh="370.268669" CO2_perVeh="35562.764523" HC_perVeh="2.435771" PMx_perVeh="0.568079" NOx_perVeh="13.804991" fuel_perVeh="11342.852725" electricity_perVeh="0"/>
        <edge id="1si" sampledSeconds="423.64" CO_abs="19895.256074" CO2_abs="837630.884934" HC_abs="108.162936" PMx_abs="13.652528" NOx_abs="325.994943" fuel_abs="267171.846777" electricity_abs="0"
            CO_normed="2931.161116" CO2_normed="123407.865184" HC_normed="15.935608" PMx_normed="2.011422" NOx_normed="48.028721" fuel_normed="39362.334700" electricity_normed="0"
            traveltime="14.90" CO_perVeh="699.891430" CO2_perVeh="29466.857596" HC_perVeh="3.805043" PMx_perVeh="0.480280" NOx_perVeh="11.468114" fuel_perVeh="9398.787586" electricity_perVeh="0"/>
        <edge id="2fi" sampledSeconds="72.82" CO_abs="1633.426569" CO2_abs="204332.066758" HC_abs="11.592126" PMx_abs="2.903131" NOx_abs="75.922968" fuel_abs="65172.505057" electricity_abs="0"
            CO_normed="666.704722" CO2_normed="83400.843574" HC_normed="4.731480" PMx_normed="1.184951" NOx_normed="30.988966" fuel_normed="26601.022472" electricity_normed="0"
            traveltime="3.46" CO_perVeh="77.623802" CO2_perVeh="9710.281516" HC_perVeh="0.550882" PMx_perVeh="0.137963" NOx_perVeh="3.608016" fuel_perVeh="3097.131944" electricity_perVeh="0"/>
        <edge id="2fo" sampledSeconds="78.26" CO_abs="1033.799353" CO2_abs="180095.670470" HC_abs="8.193355" PMx_abs="2.120599" NOx_abs="63.003490" fuel_abs="57442.483709" electricity_abs="0"
            CO_normed="421.958919" CO2_normed="73508.436926" HC_normed="3.344226" PMx_normed="0.865551" NOx_normed="25.715710" fuel_normed="23445.911718" electricity_normed="0"
            traveltime="3.48" CO_perVeh="45.999101" CO2_perVeh="8013.391452" HC_perVeh="0.364565" PMx_perVeh="0.094356" NOx_perVeh="2.803352" fuel_perVeh="2555.914347" electricity_perVeh="0"/>
        <edge id="2o" sampledSeconds="217.89" CO_abs="8615.492340" CO2_abs="826448.916840" HC_abs="56.928829" PMx_abs="13.249652" NOx_abs="321.667628" fuel_abs="263598.416214" electricity_abs="0"
            CO_normed="1356.023033" CO2_normed="130077.739331" HC_normed="8.960231" PMx_normed="2.085410" NOx_normed="50.628414" fuel_normed="41488.693825" electricity_normed="0"
            traveltime="9.24" CO_perVeh="365.287834" CO2_perVeh="35040.566785" HC_perVeh="2.413723" PMx_perVeh="0.561771" NOx_perVeh="13.638370" fuel_perVeh="11176.296223" electricity_perVeh="0"/>
        <edge id="2si" sampledSeconds="310.68" CO_abs="13731.107916" CO2_abs="626221.711708" HC_abs="75.523319" PMx_abs="9.939051" NOx_abs="241.434093" fuel_abs="199740.105313" electricity_abs="0"
            CO_normed="2161.358085" CO2_normed="98571.023408" HC_normed="11.887820" PMx_normed="1.564466" NOx_normed="38.003163" fuel_normed="31440.281019" electricity_normed="0"
            traveltime="13.03" CO_perVeh="575.954633" CO2_perVeh="26267.020705" HC_perVeh="3.167844" PMx_perVeh="0.416896" NOx_perVeh="10.127011" fuel_perVeh="8378.146883" electricity_perVeh="0"/>
        <edge id="3fi" sampledSeconds="61.38" CO_abs="1196.353474" CO2_abs="158506.527587" HC_abs="8.781582" PMx_abs="2.205843" NOx_abs="58.349326" fuel_abs="50556.313614" electricity_abs="0"
            CO_normed="518.687827" CO2_normed="68721.668150" HC_normed="3.807320" PMx_normed="0.956359" NOx_normed="25.297779" fuel_normed="21919.060748" electricity_normed="0"
            traveltime="3.29" CO_perVeh="64.066804" CO2_perVeh="8488.299553" HC_perVeh="0.470269" PMx_perVeh="0.118127" NOx_perVeh="3.124708" fuel_perVeh="2707.378307" electricity_perVeh="0"/>
        <edge id="3fo" sampledSeconds="46.46" CO_abs="633.724979" CO2_abs="114261.050674" HC_abs="5.074156" PMx_abs="1.313867" NOx_abs="39.927630" fuel_abs="36444.203570" electricity_abs="0"
            CO_normed="274.756115" CO2_normed="49538.716963" HC_normed="2.199938" PMx_normed="0.569637" NOx_normed="17.310917" fuel_normed="15800.651884" electricity_normed="0"
            traveltime="3.32" CO_perVeh="45.266070" CO2_perVeh="8161.503620" HC_perVeh="0.362440" PMx_perVeh="0.093848" NOx_perVeh="2.851974" fuel_perVeh="2603.157398" electricity_perVeh="0"/>
        <edge id="3o" sampledSeconds="143.83" CO_abs="5973.243962" CO2_abs="539676.369759" HC_abs="39.007568" PMx_abs="8.833222" NOx_abs="212.094525" fuel_abs="172131.419065" electricity_abs="0"
            CO_normed="929.615433" CO2_normed="83989.785971" HC_normed="6.070744" PMx_normed="1.374714" NOx_normed="33.008252" fuel_normed="26788.797613" electricity_normed="0"
            traveltime="9.61" CO_perVeh="399.291243" CO2_perVeh="36075.547910" HC_perVeh="2.607525" PMx_perVeh="0.590471" NOx_perVeh="14.177805" fuel_perVeh="11506.405696" electricity_perVeh="0"/>
        <edge id="3si" sampledSeconds="402.65" CO_abs="28615.265878" CO2_abs="799758.828536" HC_abs="147.743648" PMx_abs="15.182866" NOx_abs="329.126534" fuel_abs="255095.616355" electricity_abs="0"
            CO_normed="4452.698339" CO2_normed="124447.028481" HC_normed="22.989753" PMx_normed="2.362540" NOx_normed="51.213963" fuel_normed="39694.330717" electricity_normed="0"
            traveltime="19.39" CO_perVeh="1378.182253" CO2_perVeh="38518.370900" HC_perVeh="7.115701" PMx_perVeh="0.731245" NOx_perVeh="15.851551" fuel_perVeh="12286.038259" electricity_perVeh="0"/>
        <edge id="4fi" sampledSeconds="48.39" CO_abs="851.498286" CO2_abs="129925.763399" HC_abs="6.380416" PMx_abs="1.622505" NOx_abs="46.252818" fuel_abs="41440.462016" electricity_abs="0"
            CO_normed="369.173330" CO2_normed="56330.268111" HC_normed="2.766276" PMx_normed="0.703449" NOx_normed="20.053248" fuel_normed="17966.816396" electricity_normed="0"
            traveltime="3.27" CO_perVeh="57.551708" CO2_perVeh="8781.520367" HC_perVeh="0.431244" PMx_perVeh="0.109663" NOx_perVeh="3.126170" fuel_perVeh="2800.909163" electricity_perVeh="0"/>
        <edge id="4fo" sampledSeconds="55.94" CO_abs="761.764499" CO2_abs="128355.471866" HC_abs="6.073601" PMx_abs="1.559296" NOx_abs="45.802578" fuel_abs="40939.620839" electricity_abs="0"
            CO_normed="330.268588" CO2_normed="55649.456694" HC_normed="2.633254" PMx_normed="0.676044" NOx_normed="19.858044" fuel_normed="17749.673028" electricity_normed="0"
            traveltime="3.29" CO_perVeh="44.809676" CO2_perVeh="7550.321874" HC_perVeh="0.357271" PMx_perVeh="0.091723" NOx_perVeh="2.694269" fuel_perVeh="2408.212991" electricity_perVeh="0"/>
        <edge id="4o" sampledSeconds="163.62" CO_abs="6574.144216" CO2_abs="622227.611356" HC_abs="43.925981" PMx_abs="10.186464" NOx_abs="244.353560" fuel_abs="198461.263737" electricity_abs="0"
            CO_normed="1036.767736" CO2_normed="98127.678813" HC_normed="6.927296" PMx_normed="1.606444" NOx_normed="38.535493" fuel_normed="31298.101835" electricity_normed="0"
            traveltime="9.27" CO_perVeh="372.636914" CO2_perVeh="35269.225784" HC_perVeh="2.489821" PMx_perVeh="0.577391" NOx_perVeh="13.850496" fuel_perVeh="11249.219727" electricity_perVeh="0"/>
        <edge id="4si" sampledSeconds="291.89" CO_abs="19146.126331" CO2_abs="603028.881331" HC_abs="100.343976" PMx_abs="11.058369" NOx_abs="244.831744" fuel_abs="192344.459040" electricity_abs="0"
            CO_normed="3018.703403" CO2_normed="95077.474392" HC_normed="15.820887" PMx_normed="1.743535" NOx_normed="38.601773" fuel_normed="30326.284437" electricity_normed="0"
            traveltime="17.25" CO_perVeh="1131.294503" CO2_perVeh="35631.398566" HC_perVeh="5.929063" PMx_perVeh="0.653410" NOx_perVeh="14.466467" fuel_perVeh="11365.130749" electricity_perVeh="0"/>
    </interval>
